# Field minima and maxima
# Time        	field         	min           	location(min) 	max           	location(max) 
1             	mag(U)        	0.000000e+00	(-1.980858e-02 2.540000e-02 -1.473427e-21)	1.072734e+01	(-1.138286e-02 1.409183e-02 -1.837158e-20)
2             	mag(U)        	0.000000e+00	(-1.980858e-02 2.540000e-02 -1.473427e-21)	6.262210e+01	(2.874282e-01 1.678376e-02 1.348070e-21)
3             	mag(U)        	0.000000e+00	(-1.980858e-02 2.540000e-02 -1.473427e-21)	1.045780e+03	(1.293775e-02 2.519496e-02 1.774286e-20)
4             	mag(U)        	0.000000e+00	(-1.980858e-02 2.540000e-02 -1.473427e-21)	4.016269e+16	(2.874282e-01 -3.436365e-03 -3.040350e-20)
5             	mag(U)        	0.000000e+00	(-1.980858e-02 2.540000e-02 -1.473427e-21)	5.038145e+43	(2.874282e-01 1.505215e-02 -3.200713e-22)
6             	mag(U)        	0.000000e+00	(-1.980858e-02 2.540000e-02 -1.473427e-21)	9.278157e+114	(2.684506e-01 1.833786e-02 -3.990435e-21)
