# Field minima and maxima
# Time        	field         	min           	location(min) 	max           	location(max) 
1             	mag(U)        	0.000000e+00	(-1.980858e-02 2.540000e-02 -1.473427e-21)	6.500000e+00	(-2.060000e-02 1.594203e-04 1.400103e-21)
2             	mag(U)        	0.000000e+00	(-1.980858e-02 2.540000e-02 -1.473427e-21)	1.135556e+01	(-3.957092e-04 1.594203e-04 -2.485108e-21)
3             	mag(U)        	0.000000e+00	(-1.980858e-02 2.540000e-02 -1.473427e-21)	1.549552e+01	(-3.957092e-04 1.594203e-04 -2.485108e-21)
4             	mag(U)        	0.000000e+00	(-1.980858e-02 2.540000e-02 -1.473427e-21)	1.403665e+01	(2.644796e-04 1.599403e-04 -4.718007e-21)
5             	mag(U)        	0.000000e+00	(-1.980858e-02 2.540000e-02 -1.473427e-21)	8.455485e+00	(-4.785636e-03 4.897030e-04 1.180688e-20)
6             	mag(U)        	0.000000e+00	(-1.980858e-02 2.540000e-02 -1.473427e-21)	8.725800e+00	(7.947134e-04 -1.998231e-03 -4.427105e-21)
7             	mag(U)        	0.000000e+00	(-1.980858e-02 2.540000e-02 -1.473427e-21)	7.896602e+00	(7.947134e-04 -1.998231e-03 -4.427105e-21)
8             	mag(U)        	0.000000e+00	(-1.980858e-02 2.540000e-02 -1.473427e-21)	8.816145e+00	(-3.957092e-04 1.594203e-04 -2.485108e-21)
9             	mag(U)        	0.000000e+00	(-1.980858e-02 2.540000e-02 -1.473427e-21)	1.011617e+01	(2.874282e-01 -1.655703e-02 1.902175e-20)
10            	mag(U)        	0.000000e+00	(-1.980858e-02 2.540000e-02 -1.473427e-21)	9.383674e+00	(2.874282e-01 -1.655703e-02 1.902175e-20)
11            	mag(U)        	0.000000e+00	(-1.980858e-02 2.540000e-02 -1.473427e-21)	7.538318e+00	(2.874282e-01 -1.655703e-02 1.902175e-20)
12            	mag(U)        	0.000000e+00	(-1.980858e-02 2.540000e-02 -1.473427e-21)	6.785884e+00	(-1.264799e-02 2.473835e-02 -2.803006e-20)
13            	mag(U)        	0.000000e+00	(-1.980858e-02 2.540000e-02 -1.473427e-21)	6.997068e+00	(2.874282e-01 -1.655703e-02 1.902175e-20)
14            	mag(U)        	0.000000e+00	(-1.980858e-02 2.540000e-02 -1.473427e-21)	8.051965e+00	(2.874282e-01 -1.655703e-02 1.902175e-20)
15            	mag(U)        	0.000000e+00	(-1.980858e-02 2.540000e-02 -1.473427e-21)	8.593046e+00	(2.874282e-01 -1.655703e-02 1.902175e-20)
16            	mag(U)        	0.000000e+00	(-1.980858e-02 2.540000e-02 -1.473427e-21)	8.317918e+00	(2.874282e-01 -1.655703e-02 1.902175e-20)
17            	mag(U)        	0.000000e+00	(-1.980858e-02 2.540000e-02 -1.473427e-21)	7.702031e+00	(2.874282e-01 -1.655703e-02 1.902175e-20)
18            	mag(U)        	0.000000e+00	(-1.980858e-02 2.540000e-02 -1.473427e-21)	7.404806e+00	(2.874282e-01 -1.655703e-02 1.902175e-20)
19            	mag(U)        	0.000000e+00	(-1.980858e-02 2.540000e-02 -1.473427e-21)	7.589311e+00	(2.874282e-01 -1.655703e-02 1.902175e-20)
20            	mag(U)        	0.000000e+00	(-1.980858e-02 2.540000e-02 -1.473427e-21)	7.960509e+00	(2.874282e-01 -1.655703e-02 1.902175e-20)
21            	mag(U)        	0.000000e+00	(-1.980858e-02 2.540000e-02 -1.473427e-21)	8.146413e+00	(2.874282e-01 -1.655703e-02 1.902175e-20)
22            	mag(U)        	0.000000e+00	(-1.980858e-02 2.540000e-02 -1.473427e-21)	8.070735e+00	(2.874282e-01 -1.655703e-02 1.902175e-20)
23            	mag(U)        	0.000000e+00	(-1.980858e-02 2.540000e-02 -1.473427e-21)	7.905471e+00	(2.874282e-01 -1.655703e-02 1.902175e-20)
24            	mag(U)        	0.000000e+00	(-1.980858e-02 2.540000e-02 -1.473427e-21)	7.819340e+00	(2.874282e-01 -1.655703e-02 1.902175e-20)
25            	mag(U)        	0.000000e+00	(-1.980858e-02 2.540000e-02 -1.473427e-21)	7.873546e+00	(2.874282e-01 -1.655703e-02 1.902175e-20)
26            	mag(U)        	0.000000e+00	(-1.980858e-02 2.540000e-02 -1.473427e-21)	7.981369e+00	(2.874282e-01 -1.655703e-02 1.902175e-20)
27            	mag(U)        	0.000000e+00	(-1.980858e-02 2.540000e-02 -1.473427e-21)	8.034935e+00	(2.874282e-01 -1.655703e-02 1.902175e-20)
28            	mag(U)        	0.000000e+00	(-1.980858e-02 2.540000e-02 -1.473427e-21)	8.006630e+00	(2.874282e-01 -1.655703e-02 1.902175e-20)
29            	mag(U)        	0.000000e+00	(-1.980858e-02 2.540000e-02 -1.473427e-21)	7.956669e+00	(2.874282e-01 -1.655703e-02 1.902175e-20)
30            	mag(U)        	0.000000e+00	(-1.980858e-02 2.540000e-02 -1.473427e-21)	7.937346e+00	(2.874282e-01 -1.655703e-02 1.902175e-20)
31            	mag(U)        	0.000000e+00	(-1.980858e-02 2.540000e-02 -1.473427e-21)	7.955752e+00	(2.874282e-01 -1.655703e-02 1.902175e-20)
32            	mag(U)        	0.000000e+00	(-1.980858e-02 2.540000e-02 -1.473427e-21)	7.989578e+00	(2.874282e-01 -1.655703e-02 1.902175e-20)
33            	mag(U)        	0.000000e+00	(-1.980858e-02 2.540000e-02 -1.473427e-21)	8.014159e+00	(2.874282e-01 -1.655703e-02 1.902175e-20)
34            	mag(U)        	0.000000e+00	(-1.980858e-02 2.540000e-02 -1.473427e-21)	8.016841e+00	(2.874282e-01 -1.655703e-02 1.902175e-20)
35            	mag(U)        	0.000000e+00	(-1.980858e-02 2.540000e-02 -1.473427e-21)	8.002819e+00	(2.874282e-01 -1.655703e-02 1.902175e-20)
36            	mag(U)        	0.000000e+00	(-1.980858e-02 2.540000e-02 -1.473427e-21)	7.989933e+00	(2.874282e-01 -1.655703e-02 1.902175e-20)
37            	mag(U)        	0.000000e+00	(-1.980858e-02 2.540000e-02 -1.473427e-21)	7.985896e+00	(2.874282e-01 -1.655703e-02 1.902175e-20)
38            	mag(U)        	0.000000e+00	(-1.980858e-02 2.540000e-02 -1.473427e-21)	7.990836e+00	(2.874282e-01 -1.655703e-02 1.902175e-20)
39            	mag(U)        	0.000000e+00	(-1.980858e-02 2.540000e-02 -1.473427e-21)	8.000035e+00	(2.874282e-01 -1.655703e-02 1.902175e-20)
40            	mag(U)        	0.000000e+00	(-1.980858e-02 2.540000e-02 -1.473427e-21)	8.003909e+00	(2.874282e-01 -1.655703e-02 1.902175e-20)
41            	mag(U)        	0.000000e+00	(-1.980858e-02 2.540000e-02 -1.473427e-21)	7.998065e+00	(2.874282e-01 -1.655703e-02 1.902175e-20)
42            	mag(U)        	0.000000e+00	(-1.980858e-02 2.540000e-02 -1.473427e-21)	7.988075e+00	(2.874282e-01 -1.655703e-02 1.902175e-20)
43            	mag(U)        	0.000000e+00	(-1.980858e-02 2.540000e-02 -1.473427e-21)	7.982702e+00	(2.874282e-01 -1.655703e-02 1.902175e-20)
44            	mag(U)        	0.000000e+00	(-1.980858e-02 2.540000e-02 -1.473427e-21)	7.982945e+00	(2.874282e-01 -1.655703e-02 1.902175e-20)
45            	mag(U)        	0.000000e+00	(-1.980858e-02 2.540000e-02 -1.473427e-21)	7.984837e+00	(2.874282e-01 -1.655703e-02 1.902175e-20)
46            	mag(U)        	0.000000e+00	(-1.980858e-02 2.540000e-02 -1.473427e-21)	7.983835e+00	(2.874282e-01 -1.655703e-02 1.902175e-20)
47            	mag(U)        	0.000000e+00	(-1.980858e-02 2.540000e-02 -1.473427e-21)	7.979098e+00	(2.874282e-01 -1.655703e-02 1.902175e-20)
48            	mag(U)        	0.000000e+00	(-1.980858e-02 2.540000e-02 -1.473427e-21)	7.973336e+00	(2.874282e-01 -1.655703e-02 1.902175e-20)
49            	mag(U)        	0.000000e+00	(-1.980858e-02 2.540000e-02 -1.473427e-21)	7.969512e+00	(2.874282e-01 -1.655703e-02 1.902175e-20)
50            	mag(U)        	0.000000e+00	(-1.980858e-02 2.540000e-02 -1.473427e-21)	7.967704e+00	(2.874282e-01 -1.655703e-02 1.902175e-20)
51            	mag(U)        	0.000000e+00	(-1.980858e-02 2.540000e-02 -1.473427e-21)	7.966162e+00	(2.874282e-01 -1.655703e-02 1.902175e-20)
52            	mag(U)        	0.000000e+00	(-1.980858e-02 2.540000e-02 -1.473427e-21)	7.963106e+00	(2.874282e-01 -1.655703e-02 1.902175e-20)
53            	mag(U)        	0.000000e+00	(-1.980858e-02 2.540000e-02 -1.473427e-21)	7.958644e+00	(2.874282e-01 -1.655703e-02 1.902175e-20)
54            	mag(U)        	0.000000e+00	(-1.980858e-02 2.540000e-02 -1.473427e-21)	7.954520e+00	(2.874282e-01 -1.655703e-02 1.902175e-20)
55            	mag(U)        	0.000000e+00	(-1.980858e-02 2.540000e-02 -1.473427e-21)	7.951242e+00	(2.874282e-01 -1.655703e-02 1.902175e-20)
56            	mag(U)        	0.000000e+00	(-1.980858e-02 2.540000e-02 -1.473427e-21)	7.948608e+00	(2.874282e-01 -1.655703e-02 1.902175e-20)
57            	mag(U)        	0.000000e+00	(-1.980858e-02 2.540000e-02 -1.473427e-21)	7.945844e+00	(2.874282e-01 -1.655703e-02 1.902175e-20)
58            	mag(U)        	0.000000e+00	(-1.980858e-02 2.540000e-02 -1.473427e-21)	7.942533e+00	(2.874282e-01 -1.655703e-02 1.902175e-20)
59            	mag(U)        	0.000000e+00	(-1.980858e-02 2.540000e-02 -1.473427e-21)	7.938768e+00	(2.874282e-01 -1.655703e-02 1.902175e-20)
60            	mag(U)        	0.000000e+00	(-1.980858e-02 2.540000e-02 -1.473427e-21)	7.934940e+00	(2.874282e-01 -1.655703e-02 1.902175e-20)
61            	mag(U)        	0.000000e+00	(-1.980858e-02 2.540000e-02 -1.473427e-21)	7.931442e+00	(2.874282e-01 -1.655703e-02 1.902175e-20)
62            	mag(U)        	0.000000e+00	(-1.980858e-02 2.540000e-02 -1.473427e-21)	7.928321e+00	(2.874282e-01 -1.655703e-02 1.902175e-20)
63            	mag(U)        	0.000000e+00	(-1.980858e-02 2.540000e-02 -1.473427e-21)	7.925269e+00	(2.874282e-01 -1.655703e-02 1.902175e-20)
64            	mag(U)        	0.000000e+00	(-1.980858e-02 2.540000e-02 -1.473427e-21)	7.922099e+00	(2.874282e-01 -1.655703e-02 1.902175e-20)
65            	mag(U)        	0.000000e+00	(-1.980858e-02 2.540000e-02 -1.473427e-21)	7.918807e+00	(2.874282e-01 -1.655703e-02 1.902175e-20)
66            	mag(U)        	0.000000e+00	(-1.980858e-02 2.540000e-02 -1.473427e-21)	7.915487e+00	(2.874282e-01 -1.655703e-02 1.902175e-20)
67            	mag(U)        	0.000000e+00	(-1.980858e-02 2.540000e-02 -1.473427e-21)	7.912221e+00	(2.874282e-01 -1.655703e-02 1.902175e-20)
68            	mag(U)        	0.000000e+00	(-1.980858e-02 2.540000e-02 -1.473427e-21)	7.908989e+00	(2.874282e-01 -1.655703e-02 1.902175e-20)
69            	mag(U)        	0.000000e+00	(-1.980858e-02 2.540000e-02 -1.473427e-21)	7.905723e+00	(2.874282e-01 -1.655703e-02 1.902175e-20)
70            	mag(U)        	0.000000e+00	(-1.980858e-02 2.540000e-02 -1.473427e-21)	7.902401e+00	(2.874282e-01 -1.655703e-02 1.902175e-20)
71            	mag(U)        	0.000000e+00	(-1.980858e-02 2.540000e-02 -1.473427e-21)	7.899027e+00	(2.874282e-01 -1.655703e-02 1.902175e-20)
72            	mag(U)        	0.000000e+00	(-1.980858e-02 2.540000e-02 -1.473427e-21)	7.895626e+00	(2.874282e-01 -1.655703e-02 1.902175e-20)
73            	mag(U)        	0.000000e+00	(-1.980858e-02 2.540000e-02 -1.473427e-21)	7.892225e+00	(2.874282e-01 -1.655703e-02 1.902175e-20)
74            	mag(U)        	0.000000e+00	(-1.980858e-02 2.540000e-02 -1.473427e-21)	7.888824e+00	(2.874282e-01 -1.655703e-02 1.902175e-20)
75            	mag(U)        	0.000000e+00	(-1.980858e-02 2.540000e-02 -1.473427e-21)	7.885379e+00	(2.874282e-01 -1.655703e-02 1.902175e-20)
76            	mag(U)        	0.000000e+00	(-1.980858e-02 2.540000e-02 -1.473427e-21)	7.881817e+00	(2.874282e-01 -1.655703e-02 1.902175e-20)
77            	mag(U)        	0.000000e+00	(-1.980858e-02 2.540000e-02 -1.473427e-21)	7.878064e+00	(2.874282e-01 -1.655703e-02 1.902175e-20)
78            	mag(U)        	0.000000e+00	(-1.980858e-02 2.540000e-02 -1.473427e-21)	7.874052e+00	(2.874282e-01 -1.655703e-02 1.902175e-20)
79            	mag(U)        	0.000000e+00	(-1.980858e-02 2.540000e-02 -1.473427e-21)	7.869841e+00	(2.874282e-01 -1.655703e-02 1.902175e-20)
80            	mag(U)        	0.000000e+00	(-1.980858e-02 2.540000e-02 -1.473427e-21)	7.865454e+00	(2.874282e-01 -1.655703e-02 1.902175e-20)
81            	mag(U)        	0.000000e+00	(-1.980858e-02 2.540000e-02 -1.473427e-21)	7.860836e+00	(2.874282e-01 -1.655703e-02 1.902175e-20)
82            	mag(U)        	0.000000e+00	(-1.980858e-02 2.540000e-02 -1.473427e-21)	7.855939e+00	(2.874282e-01 -1.655703e-02 1.902175e-20)
83            	mag(U)        	0.000000e+00	(-1.980858e-02 2.540000e-02 -1.473427e-21)	7.850770e+00	(2.874282e-01 -1.655703e-02 1.902175e-20)
84            	mag(U)        	0.000000e+00	(-1.980858e-02 2.540000e-02 -1.473427e-21)	7.845382e+00	(2.874282e-01 -1.655703e-02 1.902175e-20)
85            	mag(U)        	0.000000e+00	(-1.980858e-02 2.540000e-02 -1.473427e-21)	7.839803e+00	(2.874282e-01 -1.655703e-02 1.902175e-20)
86            	mag(U)        	0.000000e+00	(-1.980858e-02 2.540000e-02 -1.473427e-21)	7.833992e+00	(2.874282e-01 -1.655703e-02 1.902175e-20)
87            	mag(U)        	0.000000e+00	(-1.980858e-02 2.540000e-02 -1.473427e-21)	7.827592e+00	(2.874282e-01 -1.655703e-02 1.902175e-20)
88            	mag(U)        	0.000000e+00	(-1.980858e-02 2.540000e-02 -1.473427e-21)	7.820998e+00	(2.874282e-01 -1.655703e-02 1.902175e-20)
89            	mag(U)        	0.000000e+00	(-1.980858e-02 2.540000e-02 -1.473427e-21)	7.814398e+00	(2.874282e-01 -1.655703e-02 1.902175e-20)
90            	mag(U)        	0.000000e+00	(-1.980858e-02 2.540000e-02 -1.473427e-21)	7.807072e+00	(2.874282e-01 -1.655703e-02 1.902175e-20)
91            	mag(U)        	0.000000e+00	(-1.980858e-02 2.540000e-02 -1.473427e-21)	7.799263e+00	(2.874282e-01 -1.655703e-02 1.902175e-20)
92            	mag(U)        	0.000000e+00	(-1.980858e-02 2.540000e-02 -1.473427e-21)	7.791338e+00	(2.874282e-01 -1.655703e-02 1.902175e-20)
93            	mag(U)        	0.000000e+00	(-1.980858e-02 2.540000e-02 -1.473427e-21)	7.782808e+00	(2.874282e-01 -1.655703e-02 1.902175e-20)
94            	mag(U)        	0.000000e+00	(-1.980858e-02 2.540000e-02 -1.473427e-21)	7.773960e+00	(2.874282e-01 -1.655703e-02 1.902175e-20)
95            	mag(U)        	0.000000e+00	(-1.980858e-02 2.540000e-02 -1.473427e-21)	7.764712e+00	(2.874282e-01 -1.655703e-02 1.902175e-20)
96            	mag(U)        	0.000000e+00	(-1.980858e-02 2.540000e-02 -1.473427e-21)	7.755302e+00	(2.874282e-01 -1.655703e-02 1.902175e-20)
97            	mag(U)        	0.000000e+00	(-1.980858e-02 2.540000e-02 -1.473427e-21)	7.745411e+00	(2.874282e-01 -1.655703e-02 1.902175e-20)
98            	mag(U)        	0.000000e+00	(-1.980858e-02 2.540000e-02 -1.473427e-21)	7.734712e+00	(2.874282e-01 -1.655703e-02 1.902175e-20)
99            	mag(U)        	0.000000e+00	(-1.980858e-02 2.540000e-02 -1.473427e-21)	7.723945e+00	(2.874282e-01 -1.655703e-02 1.902175e-20)
100           	mag(U)        	0.000000e+00	(-1.980858e-02 2.540000e-02 -1.473427e-21)	7.713189e+00	(2.874282e-01 -1.655703e-02 1.902175e-20)
101           	mag(U)        	0.000000e+00	(-1.980858e-02 2.540000e-02 -1.473427e-21)	7.701548e+00	(2.874282e-01 -1.655703e-02 1.902175e-20)
102           	mag(U)        	0.000000e+00	(-1.980858e-02 2.540000e-02 -1.473427e-21)	7.689021e+00	(2.874282e-01 -1.655703e-02 1.902175e-20)
103           	mag(U)        	0.000000e+00	(-1.980858e-02 2.540000e-02 -1.473427e-21)	7.676387e+00	(2.874282e-01 -1.655703e-02 1.902175e-20)
104           	mag(U)        	0.000000e+00	(-1.980858e-02 2.540000e-02 -1.473427e-21)	7.663827e+00	(2.874282e-01 -1.655703e-02 1.902175e-20)
105           	mag(U)        	0.000000e+00	(-1.980858e-02 2.540000e-02 -1.473427e-21)	7.650724e+00	(2.874282e-01 -1.655703e-02 1.902175e-20)
106           	mag(U)        	0.000000e+00	(-1.980858e-02 2.540000e-02 -1.473427e-21)	7.636928e+00	(2.874282e-01 -1.655703e-02 1.902175e-20)
107           	mag(U)        	0.000000e+00	(-1.980858e-02 2.540000e-02 -1.473427e-21)	7.622713e+00	(2.874282e-01 -1.655703e-02 1.902175e-20)
108           	mag(U)        	0.000000e+00	(-1.980858e-02 2.540000e-02 -1.473427e-21)	7.608207e+00	(2.874282e-01 -1.655703e-02 1.902175e-20)
109           	mag(U)        	0.000000e+00	(-1.980858e-02 2.540000e-02 -1.473427e-21)	7.593403e+00	(2.874282e-01 -1.655703e-02 1.902175e-20)
110           	mag(U)        	0.000000e+00	(-1.980858e-02 2.540000e-02 -1.473427e-21)	7.578271e+00	(2.874282e-01 -1.655703e-02 1.902175e-20)
111           	mag(U)        	0.000000e+00	(-1.980858e-02 2.540000e-02 -1.473427e-21)	7.562703e+00	(2.874282e-01 -1.655703e-02 1.902175e-20)
112           	mag(U)        	0.000000e+00	(-1.980858e-02 2.540000e-02 -1.473427e-21)	7.546710e+00	(2.874282e-01 -1.655703e-02 1.902175e-20)
113           	mag(U)        	0.000000e+00	(-1.980858e-02 2.540000e-02 -1.473427e-21)	7.530271e+00	(2.874282e-01 -1.655703e-02 1.902175e-20)
114           	mag(U)        	0.000000e+00	(-1.980858e-02 2.540000e-02 -1.473427e-21)	7.513474e+00	(2.874282e-01 -1.655703e-02 1.902175e-20)
115           	mag(U)        	0.000000e+00	(-1.980858e-02 2.540000e-02 -1.473427e-21)	7.496381e+00	(2.874282e-01 -1.655703e-02 1.902175e-20)
116           	mag(U)        	0.000000e+00	(-1.980858e-02 2.540000e-02 -1.473427e-21)	7.478968e+00	(2.874282e-01 -1.655703e-02 1.902175e-20)
117           	mag(U)        	0.000000e+00	(-1.980858e-02 2.540000e-02 -1.473427e-21)	7.461184e+00	(2.874282e-01 -1.655703e-02 1.902175e-20)
118           	mag(U)        	0.000000e+00	(-1.980858e-02 2.540000e-02 -1.473427e-21)	7.443146e+00	(2.874282e-01 -1.655703e-02 1.902175e-20)
119           	mag(U)        	0.000000e+00	(-1.980858e-02 2.540000e-02 -1.473427e-21)	7.424864e+00	(2.874282e-01 -1.655703e-02 1.902175e-20)
120           	mag(U)        	0.000000e+00	(-1.980858e-02 2.540000e-02 -1.473427e-21)	7.406321e+00	(2.874282e-01 -1.655703e-02 1.902175e-20)
121           	mag(U)        	0.000000e+00	(-1.980858e-02 2.540000e-02 -1.473427e-21)	7.387515e+00	(2.874282e-01 -1.655703e-02 1.902175e-20)
122           	mag(U)        	0.000000e+00	(-1.980858e-02 2.540000e-02 -1.473427e-21)	7.368504e+00	(2.874282e-01 -1.655703e-02 1.902175e-20)
123           	mag(U)        	0.000000e+00	(-1.980858e-02 2.540000e-02 -1.473427e-21)	7.349270e+00	(2.874282e-01 -1.655703e-02 1.902175e-20)
124           	mag(U)        	0.000000e+00	(-1.980858e-02 2.540000e-02 -1.473427e-21)	7.329841e+00	(2.874282e-01 -1.655703e-02 1.902175e-20)
125           	mag(U)        	0.000000e+00	(-1.980858e-02 2.540000e-02 -1.473427e-21)	7.310203e+00	(2.874282e-01 -1.655703e-02 1.902175e-20)
126           	mag(U)        	0.000000e+00	(-1.980858e-02 2.540000e-02 -1.473427e-21)	7.290530e+00	(2.874282e-01 -1.655703e-02 1.902175e-20)
127           	mag(U)        	0.000000e+00	(-1.980858e-02 2.540000e-02 -1.473427e-21)	7.270820e+00	(2.874282e-01 -1.655703e-02 1.902175e-20)
128           	mag(U)        	0.000000e+00	(-1.980858e-02 2.540000e-02 -1.473427e-21)	7.251125e+00	(2.874282e-01 -1.655703e-02 1.902175e-20)
129           	mag(U)        	0.000000e+00	(-1.980858e-02 2.540000e-02 -1.473427e-21)	7.231387e+00	(2.874282e-01 -1.655703e-02 1.902175e-20)
130           	mag(U)        	0.000000e+00	(-1.980858e-02 2.540000e-02 -1.473427e-21)	7.211235e+00	(2.874282e-01 -1.655703e-02 1.902175e-20)
131           	mag(U)        	0.000000e+00	(-1.980858e-02 2.540000e-02 -1.473427e-21)	7.190990e+00	(2.874282e-01 -1.655703e-02 1.902175e-20)
132           	mag(U)        	0.000000e+00	(-1.980858e-02 2.540000e-02 -1.473427e-21)	7.170872e+00	(2.874282e-01 -1.655703e-02 1.902175e-20)
133           	mag(U)        	0.000000e+00	(-1.980858e-02 2.540000e-02 -1.473427e-21)	7.150893e+00	(2.874282e-01 -1.655703e-02 1.902175e-20)
134           	mag(U)        	0.000000e+00	(-1.980858e-02 2.540000e-02 -1.473427e-21)	7.130611e+00	(2.874282e-01 -1.655703e-02 1.902175e-20)
135           	mag(U)        	0.000000e+00	(-1.980858e-02 2.540000e-02 -1.473427e-21)	7.110266e+00	(2.874282e-01 -1.655703e-02 1.902175e-20)
136           	mag(U)        	0.000000e+00	(-1.980858e-02 2.540000e-02 -1.473427e-21)	7.090241e+00	(2.874282e-01 -1.655703e-02 1.902175e-20)
137           	mag(U)        	0.000000e+00	(-1.980858e-02 2.540000e-02 -1.473427e-21)	7.070330e+00	(2.874282e-01 -1.655703e-02 1.902175e-20)
138           	mag(U)        	0.000000e+00	(-1.980858e-02 2.540000e-02 -1.473427e-21)	7.050339e+00	(2.874282e-01 -1.655703e-02 1.902175e-20)
139           	mag(U)        	0.000000e+00	(-1.980858e-02 2.540000e-02 -1.473427e-21)	7.029929e+00	(2.874282e-01 -1.655703e-02 1.902175e-20)
140           	mag(U)        	0.000000e+00	(-1.980858e-02 2.540000e-02 -1.473427e-21)	7.009593e+00	(2.874282e-01 -1.655703e-02 1.902175e-20)
141           	mag(U)        	0.000000e+00	(-1.980858e-02 2.540000e-02 -1.473427e-21)	6.989702e+00	(2.874282e-01 -1.655703e-02 1.902175e-20)
142           	mag(U)        	0.000000e+00	(-1.980858e-02 2.540000e-02 -1.473427e-21)	6.969862e+00	(2.874282e-01 -1.655703e-02 1.902175e-20)
143           	mag(U)        	0.000000e+00	(-1.980858e-02 2.540000e-02 -1.473427e-21)	6.949954e+00	(2.874282e-01 -1.655703e-02 1.902175e-20)
144           	mag(U)        	0.000000e+00	(-1.980858e-02 2.540000e-02 -1.473427e-21)	6.930117e+00	(2.874282e-01 -1.655703e-02 1.902175e-20)
145           	mag(U)        	0.000000e+00	(-1.980858e-02 2.540000e-02 -1.473427e-21)	6.910418e+00	(2.874282e-01 -1.655703e-02 1.902175e-20)
146           	mag(U)        	0.000000e+00	(-1.980858e-02 2.540000e-02 -1.473427e-21)	6.890870e+00	(2.874282e-01 -1.655703e-02 1.902175e-20)
147           	mag(U)        	0.000000e+00	(-1.980858e-02 2.540000e-02 -1.473427e-21)	6.871503e+00	(2.874282e-01 -1.655703e-02 1.902175e-20)
148           	mag(U)        	0.000000e+00	(-1.980858e-02 2.540000e-02 -1.473427e-21)	6.852235e+00	(2.874282e-01 -1.655703e-02 1.902175e-20)
149           	mag(U)        	0.000000e+00	(-1.980858e-02 2.540000e-02 -1.473427e-21)	6.833044e+00	(2.874282e-01 -1.655703e-02 1.902175e-20)
150           	mag(U)        	0.000000e+00	(-1.980858e-02 2.540000e-02 -1.473427e-21)	6.813895e+00	(2.874282e-01 -1.655703e-02 1.902175e-20)
151           	mag(U)        	0.000000e+00	(-1.980858e-02 2.540000e-02 -1.473427e-21)	6.794783e+00	(2.874282e-01 -1.655703e-02 1.902175e-20)
152           	mag(U)        	0.000000e+00	(-1.980858e-02 2.540000e-02 -1.473427e-21)	6.775773e+00	(2.874282e-01 -1.655703e-02 1.902175e-20)
153           	mag(U)        	0.000000e+00	(-1.980858e-02 2.540000e-02 -1.473427e-21)	6.756917e+00	(2.874282e-01 -1.655703e-02 1.902175e-20)
154           	mag(U)        	0.000000e+00	(-1.980858e-02 2.540000e-02 -1.473427e-21)	6.738259e+00	(2.874282e-01 -1.655703e-02 1.902175e-20)
155           	mag(U)        	0.000000e+00	(-1.980858e-02 2.540000e-02 -1.473427e-21)	6.719865e+00	(2.874282e-01 -1.655703e-02 1.902175e-20)
156           	mag(U)        	0.000000e+00	(-1.980858e-02 2.540000e-02 -1.473427e-21)	6.701769e+00	(2.874282e-01 -1.655703e-02 1.902175e-20)
157           	mag(U)        	0.000000e+00	(-1.980858e-02 2.540000e-02 -1.473427e-21)	6.683928e+00	(2.874282e-01 -1.655703e-02 1.902175e-20)
158           	mag(U)        	0.000000e+00	(-1.980858e-02 2.540000e-02 -1.473427e-21)	6.666325e+00	(2.874282e-01 -1.655703e-02 1.902175e-20)
159           	mag(U)        	0.000000e+00	(-1.980858e-02 2.540000e-02 -1.473427e-21)	6.648953e+00	(2.874282e-01 -1.655703e-02 1.902175e-20)
160           	mag(U)        	0.000000e+00	(-1.980858e-02 2.540000e-02 -1.473427e-21)	6.631823e+00	(2.874282e-01 -1.655703e-02 1.902175e-20)
161           	mag(U)        	0.000000e+00	(-1.980858e-02 2.540000e-02 -1.473427e-21)	6.627376e+00	(-3.957092e-04 1.629712e-03 -5.033340e-21)
162           	mag(U)        	0.000000e+00	(-1.980858e-02 2.540000e-02 -1.473427e-21)	6.627365e+00	(-3.957092e-04 1.629712e-03 -5.033340e-21)
163           	mag(U)        	0.000000e+00	(-1.980858e-02 2.540000e-02 -1.473427e-21)	6.627362e+00	(-3.957092e-04 1.629712e-03 -5.033340e-21)
164           	mag(U)        	0.000000e+00	(-1.980858e-02 2.540000e-02 -1.473427e-21)	6.627364e+00	(-3.957092e-04 1.629712e-03 -5.033340e-21)
165           	mag(U)        	0.000000e+00	(-1.980858e-02 2.540000e-02 -1.473427e-21)	6.627367e+00	(-3.957092e-04 1.629712e-03 -5.033340e-21)
166           	mag(U)        	0.000000e+00	(-1.980858e-02 2.540000e-02 -1.473427e-21)	6.627365e+00	(-3.957092e-04 1.629712e-03 -5.033340e-21)
167           	mag(U)        	0.000000e+00	(-1.980858e-02 2.540000e-02 -1.473427e-21)	6.627354e+00	(-3.957092e-04 1.629712e-03 -5.033340e-21)
168           	mag(U)        	0.000000e+00	(-1.980858e-02 2.540000e-02 -1.473427e-21)	6.627337e+00	(-3.957092e-04 1.629712e-03 -5.033340e-21)
169           	mag(U)        	0.000000e+00	(-1.980858e-02 2.540000e-02 -1.473427e-21)	6.627321e+00	(-3.957092e-04 1.629712e-03 -5.033340e-21)
170           	mag(U)        	0.000000e+00	(-1.980858e-02 2.540000e-02 -1.473427e-21)	6.627312e+00	(-3.957092e-04 1.629712e-03 -5.033340e-21)
171           	mag(U)        	0.000000e+00	(-1.980858e-02 2.540000e-02 -1.473427e-21)	6.627312e+00	(-3.957092e-04 1.629712e-03 -5.033340e-21)
172           	mag(U)        	0.000000e+00	(-1.980858e-02 2.540000e-02 -1.473427e-21)	6.627313e+00	(-3.957092e-04 1.629712e-03 -5.033340e-21)
173           	mag(U)        	0.000000e+00	(-1.980858e-02 2.540000e-02 -1.473427e-21)	6.627309e+00	(-3.957092e-04 1.629712e-03 -5.033340e-21)
174           	mag(U)        	0.000000e+00	(-1.980858e-02 2.540000e-02 -1.473427e-21)	6.627297e+00	(-3.957092e-04 1.629712e-03 -5.033340e-21)
175           	mag(U)        	0.000000e+00	(-1.980858e-02 2.540000e-02 -1.473427e-21)	6.627282e+00	(-3.957092e-04 1.629712e-03 -5.033340e-21)
176           	mag(U)        	0.000000e+00	(-1.980858e-02 2.540000e-02 -1.473427e-21)	6.627268e+00	(-3.957092e-04 1.629712e-03 -5.033340e-21)
177           	mag(U)        	0.000000e+00	(-1.980858e-02 2.540000e-02 -1.473427e-21)	6.627259e+00	(-3.957092e-04 1.629712e-03 -5.033340e-21)
178           	mag(U)        	0.000000e+00	(-1.980858e-02 2.540000e-02 -1.473427e-21)	6.627252e+00	(-3.957092e-04 1.629712e-03 -5.033340e-21)
179           	mag(U)        	0.000000e+00	(-1.980858e-02 2.540000e-02 -1.473427e-21)	6.627244e+00	(-3.957092e-04 1.629712e-03 -5.033340e-21)
180           	mag(U)        	0.000000e+00	(-1.980858e-02 2.540000e-02 -1.473427e-21)	6.627233e+00	(-3.957092e-04 1.629712e-03 -5.033340e-21)
181           	mag(U)        	0.000000e+00	(-1.980858e-02 2.540000e-02 -1.473427e-21)	6.627220e+00	(-3.957092e-04 1.629712e-03 -5.033340e-21)
182           	mag(U)        	0.000000e+00	(-1.980858e-02 2.540000e-02 -1.473427e-21)	6.627207e+00	(-3.957092e-04 1.629712e-03 -5.033340e-21)
183           	mag(U)        	0.000000e+00	(-1.980858e-02 2.540000e-02 -1.473427e-21)	6.627195e+00	(-3.957092e-04 1.629712e-03 -5.033340e-21)
184           	mag(U)        	0.000000e+00	(-1.980858e-02 2.540000e-02 -1.473427e-21)	6.627184e+00	(-3.957092e-04 1.629712e-03 -5.033340e-21)
185           	mag(U)        	0.000000e+00	(-1.980858e-02 2.540000e-02 -1.473427e-21)	6.627172e+00	(-3.957092e-04 1.629712e-03 -5.033340e-21)
186           	mag(U)        	0.000000e+00	(-1.980858e-02 2.540000e-02 -1.473427e-21)	6.627159e+00	(-3.957092e-04 1.629712e-03 -5.033340e-21)
187           	mag(U)        	0.000000e+00	(-1.980858e-02 2.540000e-02 -1.473427e-21)	6.627146e+00	(-3.957092e-04 1.629712e-03 -5.033340e-21)
188           	mag(U)        	0.000000e+00	(-1.980858e-02 2.540000e-02 -1.473427e-21)	6.627135e+00	(-3.957092e-04 1.629712e-03 -5.033340e-21)
189           	mag(U)        	0.000000e+00	(-1.980858e-02 2.540000e-02 -1.473427e-21)	6.627125e+00	(-3.957092e-04 1.629712e-03 -5.033340e-21)
190           	mag(U)        	0.000000e+00	(-1.980858e-02 2.540000e-02 -1.473427e-21)	6.627115e+00	(-3.957092e-04 1.629712e-03 -5.033340e-21)
191           	mag(U)        	0.000000e+00	(-1.980858e-02 2.540000e-02 -1.473427e-21)	6.627104e+00	(-3.957092e-04 1.629712e-03 -5.033340e-21)
192           	mag(U)        	0.000000e+00	(-1.980858e-02 2.540000e-02 -1.473427e-21)	6.627092e+00	(-3.957092e-04 1.629712e-03 -5.033340e-21)
193           	mag(U)        	0.000000e+00	(-1.980858e-02 2.540000e-02 -1.473427e-21)	6.627080e+00	(-3.957092e-04 1.629712e-03 -5.033340e-21)
194           	mag(U)        	0.000000e+00	(-1.980858e-02 2.540000e-02 -1.473427e-21)	6.627068e+00	(-3.957092e-04 1.629712e-03 -5.033340e-21)
195           	mag(U)        	0.000000e+00	(-1.980858e-02 2.540000e-02 -1.473427e-21)	6.627057e+00	(-3.957092e-04 1.629712e-03 -5.033340e-21)
196           	mag(U)        	0.000000e+00	(-1.980858e-02 2.540000e-02 -1.473427e-21)	6.627045e+00	(-3.957092e-04 1.629712e-03 -5.033340e-21)
197           	mag(U)        	0.000000e+00	(-1.980858e-02 2.540000e-02 -1.473427e-21)	6.627033e+00	(-3.957092e-04 1.629712e-03 -5.033340e-21)
198           	mag(U)        	0.000000e+00	(-1.980858e-02 2.540000e-02 -1.473427e-21)	6.627021e+00	(-3.957092e-04 1.629712e-03 -5.033340e-21)
199           	mag(U)        	0.000000e+00	(-1.980858e-02 2.540000e-02 -1.473427e-21)	6.627009e+00	(-3.957092e-04 1.629712e-03 -5.033340e-21)
200           	mag(U)        	0.000000e+00	(-1.980858e-02 2.540000e-02 -1.473427e-21)	6.626997e+00	(-3.957092e-04 1.629712e-03 -5.033340e-21)
201           	mag(U)        	0.000000e+00	(-1.980858e-02 2.540000e-02 -1.473427e-21)	6.626985e+00	(-3.957092e-04 1.629712e-03 -5.033340e-21)
202           	mag(U)        	0.000000e+00	(-1.980858e-02 2.540000e-02 -1.473427e-21)	6.626973e+00	(-3.957092e-04 1.629712e-03 -5.033340e-21)
203           	mag(U)        	0.000000e+00	(-1.980858e-02 2.540000e-02 -1.473427e-21)	6.626962e+00	(-3.957092e-04 1.629712e-03 -5.033340e-21)
204           	mag(U)        	0.000000e+00	(-1.980858e-02 2.540000e-02 -1.473427e-21)	6.626952e+00	(-3.957092e-04 1.629712e-03 -5.033340e-21)
205           	mag(U)        	0.000000e+00	(-1.980858e-02 2.540000e-02 -1.473427e-21)	6.626941e+00	(-3.957092e-04 1.629712e-03 -5.033340e-21)
206           	mag(U)        	0.000000e+00	(-1.980858e-02 2.540000e-02 -1.473427e-21)	6.626930e+00	(-3.957092e-04 1.629712e-03 -5.033340e-21)
207           	mag(U)        	0.000000e+00	(-1.980858e-02 2.540000e-02 -1.473427e-21)	6.626919e+00	(-3.957092e-04 1.629712e-03 -5.033340e-21)
208           	mag(U)        	0.000000e+00	(-1.980858e-02 2.540000e-02 -1.473427e-21)	6.626909e+00	(-3.957092e-04 1.629712e-03 -5.033340e-21)
209           	mag(U)        	0.000000e+00	(-1.980858e-02 2.540000e-02 -1.473427e-21)	6.626899e+00	(-3.957092e-04 1.629712e-03 -5.033340e-21)
210           	mag(U)        	0.000000e+00	(-1.980858e-02 2.540000e-02 -1.473427e-21)	6.626890e+00	(-3.957092e-04 1.629712e-03 -5.033340e-21)
211           	mag(U)        	0.000000e+00	(-1.980858e-02 2.540000e-02 -1.473427e-21)	6.626881e+00	(-3.957092e-04 1.629712e-03 -5.033340e-21)