# Probe 0 (1e-06 0 0.01)
# Probe 1 (0.21 -0.20999 0.01)
# Probe 2 (0.21 0.20999 0.01)
# Probe 3 (0.21 0 0.01)
# Time        0             1             2             3            
0.1           11.7648       9.63951       0.0329731     8.12637      
0.2           12.7385       9.86119       0.0160995     9.79832      
0.3           13.1984       10.0129       0.0185716     10.79        
0.4           13.2224       10.0126       0.022913      12.3991      
0.5           13.4219       10.0108       0.0255264     14.0918      
0.6           13.8491       10.011        0.0232932     15.7167      
0.7           14.3542       10.0133       0.0262829     17.3746      
0.8           14.9428       10.0144       0.0270262     18.9211      
0.9           15.4441       10.0157       0.0285713     20.5348      
1             16.1275       10.0162       0.0294416     21.9672      
1.1           14.4171       10.0147       0.0279761     22.5866      
1.2           13.3157       10.0132       0.026881      22.9268      
1.3           12.6125       10.012        0.0248285     23.1832      
1.4           12.155        10.0116       0.0260819     23.3951      
1.5           11.851        10.0116       0.0260897     23.4784      
1.6           11.6481       10.0114       0.0262077     23.5577      
1.7           11.5109       10.0113       0.026308      23.6043      
1.8           11.4174       10.0113       0.0263338     23.6375      
1.9           11.3538       10.0112       0.0261797     23.6629      
2             11.3108       10.0112       0.0262765     23.6808      
