# Probe 0 (1e-06 0 0.01)
# Probe 1 (0.21 -0.20999 0.01)
# Probe 2 (0.21 0.20999 0.01)
# Probe 3 (0.21 0 0.01)
# Time        0             1             2             3            
0.1           (1.48921 -0.000778331 -0.000271152) (-7.84191e-06 0.703981 -6.22925e-06) (0.000443044 2.42857 -0.000190225) (0.68589 1.31871 0.00621005)
0.2           (2.48387 -0.000780725 -0.000125148) (1.44553e-05 0.462123 -8.91887e-06) (-0.00527801 3.55738 0.00199832) (1.52169 1.38951 0.0112615)
0.3           (3.33538 0.000479374 0.000424402) (-4.13537e-05 -0.0985884 -3.53281e-05) (-0.000170732 3.74444 -0.000617941) (2.40043 1.36225 0.00283723)
0.4           (4.12419 -0.000205992 0.000438792) (0.00175586 -0.75173 0.000130933) (-0.0034042 3.75215 -0.00247024) (2.88204 0.967577 -0.0125463)
0.5           (4.75593 -8.1223e-05 -0.000420732) (-0.00293321 -1.33086 0.000292631) (0.0325669 3.56084 0.00142568) (3.33504 0.860678 -0.00391744)
0.6           (5.26996 -0.000233343 0.000259619) (-0.000871057 -1.76843 0.00146116) (0.0168989 3.71697 0.00389801) (3.76312 0.763247 -0.00225846)
0.7           (5.72154 7.98376e-05 -1.45899e-05) (-0.0163543 -2.04848 0.0012353) (0.0212331 3.83899 0.0016999) (3.99457 0.650874 0.00201288)
0.8           (6.12612 -2.96283e-05 2.30594e-05) (-0.00974199 -2.28358 0.00167229) (0.0128495 4.00438 -0.000484583) (4.21673 0.570885 -0.00674722)
0.9           (6.51816 6.33371e-05 -2.15747e-05) (-0.0112805 -2.53472 -0.0018746) (0.00614235 4.17391 0.000402418) (4.63528 0.541061 -0.00565869)
1             (6.86308 5.99489e-06 2.24031e-05) (-0.0126836 -2.74335 -0.0010737) (0.00177203 4.32402 -0.00102086) (4.69736 0.508282 0.0110575)
1.1           (7.11374 -6.48571e-06 2.02525e-06) (-0.0135594 -2.88824 -0.0013017) (-0.00114292 4.42527 0.000716283) (4.84439 0.493029 -0.000101409)
1.2           (7.27034 -2.32011e-05 2.851e-07) (-0.0152449 -2.97575 0.00243313) (-0.00350981 4.48795 -0.00147596) (5.0327 0.505734 0.000250026)
1.3           (7.36816 -2.39476e-05 4.34041e-06) (-0.0188932 -3.02838 -0.00131858) (-0.0118445 4.54369 0.00107564) (5.18767 0.493463 -0.000245392)
1.4           (7.43125 -2.67815e-05 -7.66278e-07) (-0.01779 -3.06153 -0.000681555) (-0.00432283 4.54974 0.00125064) (5.22806 0.507352 -0.000295255)
1.5           (7.47273 -2.73952e-05 -1.45251e-07) (-0.0168675 -3.08285 -0.000213667) (-0.00371434 4.56188 0.000493642) (5.28435 0.504622 0.000625743)
1.6           (7.5004 -2.84554e-05 -3.35865e-07) (-0.0169956 -3.09792 -0.000368623) (-0.00272732 4.56791 -2.39276e-05) (5.31013 0.50595 0.00033593)
1.7           (7.51898 -3.05623e-05 -2.10667e-07) (-0.0171403 -3.10849 0.000156941) (-0.00192056 4.571 0.000250402) (5.33217 0.506465 -0.000173329)
1.8           (7.53159 -3.07955e-05 -8.13215e-07) (-0.0172344 -3.11506 -8.77089e-05) (-0.00175813 4.57458 -9.84892e-05) (5.3418 0.507274 -0.000109199)
1.9           (7.54018 -3.15376e-05 -6.75004e-07) (-0.0172792 -3.11945 -0.000135366) (-0.00158062 4.57604 7.20115e-05) (5.34798 0.507295 -0.000146367)
2             (7.54598 -3.27097e-05 -6.97457e-07) (-0.0172506 -3.12226 -1.06494e-05) (-0.00135024 4.57772 -3.25969e-06) (5.3521 0.507469 -0.000129196)
